<?xml version="1.0" encoding="UTF-8"?>

<!-- generated on 2026-02-18T15:14:55.953685+03:00 by Eclipse SUMO sumo 1.25.0
<sumoConfiguration xmlns:xsi="http://www.w3.org/2001/XMLSchema-instance" xsi:noNamespaceSchemaLocation="http://sumo.dlr.de/xsd/sumoConfiguration.xsd">

    <input>
        <net-file value="../sumo_files/addis.net.xml"/>
        <route-files value="../sumo_files/routes.rou.xml"/>
        <additional-files value="../sumo_files/stops.add.xml,../sumo_files/vtypes.xml,../sumo_files/passengers.add.xml"/>
    </input>

    <output>
        <fcd-output value="../sumo_files/../outputs/fcd_output.xml"/>
        <tripinfo-output value="../sumo_files/../outputs/tripinfo.xml"/>
    </output>

    <time>
        <begin value="21590"/>
        <end value="30000"/>
        <step-length value="1"/>
    </time>

    <processing>
        <time-to-teleport value="-1"/>
        <waiting-time-memory value="1000"/>
    </processing>

    <traci_server>
        <remote-port value="57165"/>
    </traci_server>

</sumoConfiguration>
-->

<tripinfos xmlns:xsi="http://www.w3.org/2001/XMLSchema-instance" xsi:noNamespaceSchemaLocation="http://sumo.dlr.de/xsd/tripinfo_file.xsd">
    <tripinfo id="5.0" depart="21596.00" departLane="61605505#2_0" departPos="12.10" departSpeed="0.00" departDelay="6.00" arrival="22383.00" arrivalLane="755224014_0" arrivalPos="124.19" arrivalSpeed="0.97" duration="787.00" routeLength="10323.19" waitingTime="11.00" waitingCount="3" stopTime="50.00" timeLoss="110.26" rerouteNo="0" devices="tripinfo_5.0 fcd_5.0" vType="bus" speedFactor="1.00" vaporized=""/>
    <tripinfo id="4.0" depart="21590.00" departLane="754690751#0_0" departPos="12.10" departSpeed="0.00" departDelay="0.00" arrival="22396.00" arrivalLane="200567867#0_0" arrivalPos="415.11" arrivalSpeed="7.64" duration="806.00" routeLength="8636.01" waitingTime="1.00" waitingCount="1" stopTime="80.00" timeLoss="103.27" rerouteNo="0" devices="tripinfo_4.0 fcd_4.0" vType="bus" speedFactor="1.00" vaporized=""/>
    <personinfo id="flow_0.0" depart="21592.00" type="DEFAULT_PEDTYPE" speedFactor="0.98" duration="1319.00" waitingTime="2.00" timeLoss="194.01" traveltime="1307.00">
        <stop duration="10.00" arrival="21602.00" arrivalPos="6.50" actType="waiting"/>
        <ride waitingTime="2.00" vehicle="0.0" depart="21604.00" arrival="22911.00" arrivalPos="140.13" duration="1307.00" routeLength="14521.59" timeLoss="194.01"/>
    </personinfo>
    <personinfo id="flow_0.1" depart="21593.00" type="DEFAULT_PEDTYPE" speedFactor="1.08" duration="1318.00" waitingTime="1.00" timeLoss="194.01" traveltime="1307.00">
        <stop duration="10.00" arrival="21603.00" arrivalPos="6.50" actType="waiting"/>
        <ride waitingTime="1.00" vehicle="0.0" depart="21604.00" arrival="22911.00" arrivalPos="140.13" duration="1307.00" routeLength="14521.59" timeLoss="194.01"/>
    </personinfo>
    <tripinfo id="0.0" depart="21590.00" departLane="26006215#0_0" departPos="12.10" departSpeed="0.00" departDelay="0.00" arrival="22950.00" arrivalLane="558107787_0" arrivalPos="429.03" arrivalSpeed="13.55" duration="1360.00" routeLength="14811.37" waitingTime="5.00" waitingCount="5" stopTime="150.00" timeLoss="205.67" rerouteNo="0" devices="tripinfo_0.0 fcd_0.0 person_0.0" vType="bus" speedFactor="1.00" vaporized=""/>
    <personinfo id="flow_1.0" depart="21591.00" type="DEFAULT_PEDTYPE" speedFactor="1.01" duration="1626.00" waitingTime="24.00" timeLoss="325.87" traveltime="1592.00">
        <stop duration="10.00" arrival="21601.00" arrivalPos="169.24" actType="waiting"/>
        <ride waitingTime="24.00" vehicle="1.0" depart="21625.00" arrival="23217.00" arrivalPos="12.95" duration="1592.00" routeLength="17598.23" timeLoss="325.87"/>
    </personinfo>
    <tripinfo id="1.0" depart="21590.00" departLane="61605505#2_0" departPos="12.10" departSpeed="0.00" departDelay="0.00" arrival="23229.00" arrivalLane="754643297#0_0" arrivalPos="17.18" arrivalSpeed="2.43" duration="1639.00" routeLength="17765.22" waitingTime="6.00" waitingCount="6" stopTime="220.00" timeLoss="342.84" rerouteNo="0" devices="tripinfo_1.0 fcd_1.0 person_1.0" vType="bus" speedFactor="1.00" vaporized=""/>
    <tripinfo id="bus_0_22310" depart="22310.00" departLane="26006215#0_0" departPos="12.10" departSpeed="0.00" departDelay="0.00" arrival="23656.00" arrivalLane="558107787_0" arrivalPos="429.03" arrivalSpeed="13.61" duration="1346.00" routeLength="14811.37" waitingTime="3.00" waitingCount="3" stopTime="140.00" timeLoss="201.68" rerouteNo="0" devices="tripinfo_bus_0_22310 fcd_bus_0_22310" vType="bus" speedFactor="1.00" vaporized=""/>
    <tripinfo id="bus_1_22790" depart="22790.00" departLane="61605505#2_0" departPos="12.10" departSpeed="0.00" departDelay="0.00" arrival="24405.00" arrivalLane="754643297#0_0" arrivalPos="17.18" arrivalSpeed="2.46" duration="1615.00" routeLength="17765.22" waitingTime="6.00" waitingCount="5" stopTime="210.00" timeLoss="329.99" rerouteNo="0" devices="tripinfo_bus_1_22790 fcd_bus_1_22790" vType="bus" speedFactor="1.00" vaporized=""/>
    <tripinfo id="bus_0_23270" depart="23270.00" departLane="26006215#0_0" departPos="12.10" departSpeed="0.00" departDelay="0.00" arrival="24614.00" arrivalLane="558107787_0" arrivalPos="429.03" arrivalSpeed="13.50" duration="1344.00" routeLength="14811.37" waitingTime="3.00" waitingCount="3" stopTime="140.00" timeLoss="199.65" rerouteNo="0" devices="tripinfo_bus_0_23270 fcd_bus_0_23270" vType="bus" speedFactor="1.00" vaporized=""/>
    <tripinfo id="bus_1_23750" depart="23750.00" departLane="61605505#2_0" departPos="12.10" departSpeed="0.00" departDelay="0.00" arrival="25357.00" arrivalLane="754643297#0_0" arrivalPos="17.18" arrivalSpeed="2.19" duration="1607.00" routeLength="17765.22" waitingTime="3.00" waitingCount="3" stopTime="210.00" timeLoss="320.95" rerouteNo="0" devices="tripinfo_bus_1_23750 fcd_bus_1_23750" vType="bus" speedFactor="1.00" vaporized=""/>
    <tripinfo id="bus_0_24230" depart="24230.00" departLane="26006215#0_0" departPos="12.10" departSpeed="0.00" departDelay="0.00" arrival="25576.00" arrivalLane="558107787_0" arrivalPos="429.03" arrivalSpeed="13.84" duration="1346.00" routeLength="14811.37" waitingTime="2.00" waitingCount="2" stopTime="140.00" timeLoss="202.08" rerouteNo="0" devices="tripinfo_bus_0_24230 fcd_bus_0_24230" vType="bus" speedFactor="1.00" vaporized=""/>
    <personinfo id="flow_1.1" depart="21620.00" type="DEFAULT_PEDTYPE" speedFactor="0.88" duration="4803.00" waitingTime="3207.00" timeLoss="319.11" traveltime="1586.00">
        <stop duration="10.00" arrival="21630.00" arrivalPos="169.24" actType="waiting"/>
        <ride waitingTime="3207.00" vehicle="bus_1_24770" depart="24837.00" arrival="26423.00" arrivalPos="13.00" duration="1586.00" routeLength="17598.28" timeLoss="319.11"/>
    </personinfo>
    <personinfo id="flow_1.2" depart="21631.00" type="DEFAULT_PEDTYPE" speedFactor="0.95" duration="4792.00" waitingTime="3196.00" timeLoss="319.11" traveltime="1586.00">
        <stop duration="10.00" arrival="21641.00" arrivalPos="169.24" actType="waiting"/>
        <ride waitingTime="3196.00" vehicle="bus_1_24770" depart="24837.00" arrival="26423.00" arrivalPos="13.00" duration="1586.00" routeLength="17598.28" timeLoss="319.11"/>
    </personinfo>
    <personinfo id="flow_1.3" depart="21653.00" type="DEFAULT_PEDTYPE" speedFactor="0.93" duration="4770.00" waitingTime="3174.00" timeLoss="319.11" traveltime="1586.00">
        <stop duration="10.00" arrival="21663.00" arrivalPos="169.24" actType="waiting"/>
        <ride waitingTime="3174.00" vehicle="bus_1_24770" depart="24837.00" arrival="26423.00" arrivalPos="13.00" duration="1586.00" routeLength="17598.28" timeLoss="319.11"/>
    </personinfo>
    <personinfo id="flow_1.4" depart="21667.00" type="DEFAULT_PEDTYPE" speedFactor="0.82" duration="4757.00" waitingTime="3160.00" timeLoss="319.11" traveltime="1587.00">
        <stop duration="10.00" arrival="21677.00" arrivalPos="169.24" actType="waiting"/>
        <ride waitingTime="3160.00" vehicle="bus_1_24770" depart="24837.00" arrival="26424.00" arrivalPos="13.00" duration="1587.00" routeLength="17598.26" timeLoss="319.11"/>
    </personinfo>
    <personinfo id="flow_1.5" depart="21675.00" type="DEFAULT_PEDTYPE" speedFactor="0.98" duration="4749.00" waitingTime="3152.00" timeLoss="319.11" traveltime="1587.00">
        <stop duration="10.00" arrival="21685.00" arrivalPos="169.24" actType="waiting"/>
        <ride waitingTime="3152.00" vehicle="bus_1_24770" depart="24837.00" arrival="26424.00" arrivalPos="13.00" duration="1587.00" routeLength="17598.26" timeLoss="319.11"/>
    </personinfo>
    <personinfo id="flow_1.6" depart="21688.00" type="DEFAULT_PEDTYPE" speedFactor="1.15" duration="4737.00" waitingTime="3139.00" timeLoss="319.11" traveltime="1588.00">
        <stop duration="10.00" arrival="21698.00" arrivalPos="169.24" actType="waiting"/>
        <ride waitingTime="3139.00" vehicle="bus_1_24770" depart="24837.00" arrival="26425.00" arrivalPos="13.00" duration="1588.00" routeLength="17598.26" timeLoss="319.11"/>
    </personinfo>
    <personinfo id="flow_1.7" depart="21697.00" type="DEFAULT_PEDTYPE" speedFactor="1.31" duration="4728.00" waitingTime="3130.00" timeLoss="319.11" traveltime="1588.00">
        <stop duration="10.00" arrival="21707.00" arrivalPos="169.24" actType="waiting"/>
        <ride waitingTime="3130.00" vehicle="bus_1_24770" depart="24837.00" arrival="26425.00" arrivalPos="13.00" duration="1588.00" routeLength="17598.26" timeLoss="319.11"/>
    </personinfo>
    <personinfo id="flow_1.8" depart="21705.00" type="DEFAULT_PEDTYPE" speedFactor="1.06" duration="4721.00" waitingTime="3122.00" timeLoss="319.11" traveltime="1589.00">
        <stop duration="10.00" arrival="21715.00" arrivalPos="169.24" actType="waiting"/>
        <ride waitingTime="3122.00" vehicle="bus_1_24770" depart="24837.00" arrival="26426.00" arrivalPos="13.00" duration="1589.00" routeLength="17598.26" timeLoss="319.11"/>
    </personinfo>
    <personinfo id="flow_1.9" depart="21720.00" type="DEFAULT_PEDTYPE" speedFactor="0.84" duration="4706.00" waitingTime="3107.00" timeLoss="319.11" traveltime="1589.00">
        <stop duration="10.00" arrival="21730.00" arrivalPos="169.24" actType="waiting"/>
        <ride waitingTime="3107.00" vehicle="bus_1_24770" depart="24837.00" arrival="26426.00" arrivalPos="13.00" duration="1589.00" routeLength="17598.26" timeLoss="319.11"/>
    </personinfo>
    <personinfo id="flow_1.10" depart="21724.00" type="DEFAULT_PEDTYPE" speedFactor="1.13" duration="4703.00" waitingTime="3103.00" timeLoss="319.11" traveltime="1590.00">
        <stop duration="10.00" arrival="21734.00" arrivalPos="169.24" actType="waiting"/>
        <ride waitingTime="3103.00" vehicle="bus_1_24770" depart="24837.00" arrival="26427.00" arrivalPos="13.00" duration="1590.00" routeLength="17598.26" timeLoss="319.11"/>
    </personinfo>
    <personinfo id="flow_1.11" depart="21735.00" type="DEFAULT_PEDTYPE" speedFactor="1.21" duration="4692.00" waitingTime="3092.00" timeLoss="319.11" traveltime="1590.00">
        <stop duration="10.00" arrival="21745.00" arrivalPos="169.24" actType="waiting"/>
        <ride waitingTime="3092.00" vehicle="bus_1_24770" depart="24837.00" arrival="26427.00" arrivalPos="13.00" duration="1590.00" routeLength="17598.26" timeLoss="319.11"/>
    </personinfo>
    <personinfo id="flow_1.12" depart="21737.00" type="DEFAULT_PEDTYPE" speedFactor="0.95" duration="4691.00" waitingTime="3090.00" timeLoss="319.11" traveltime="1591.00">
        <stop duration="10.00" arrival="21747.00" arrivalPos="169.24" actType="waiting"/>
        <ride waitingTime="3090.00" vehicle="bus_1_24770" depart="24837.00" arrival="26428.00" arrivalPos="13.00" duration="1591.00" routeLength="17598.26" timeLoss="319.11"/>
    </personinfo>
    <personinfo id="flow_1.13" depart="21748.00" type="DEFAULT_PEDTYPE" speedFactor="1.01" duration="4680.00" waitingTime="3079.00" timeLoss="319.11" traveltime="1591.00">
        <stop duration="10.00" arrival="21758.00" arrivalPos="169.24" actType="waiting"/>
        <ride waitingTime="3079.00" vehicle="bus_1_24770" depart="24837.00" arrival="26428.00" arrivalPos="13.00" duration="1591.00" routeLength="17598.26" timeLoss="319.11"/>
    </personinfo>
    <personinfo id="flow_1.14" depart="21769.00" type="DEFAULT_PEDTYPE" speedFactor="0.98" duration="4660.00" waitingTime="3058.00" timeLoss="319.11" traveltime="1592.00">
        <stop duration="10.00" arrival="21779.00" arrivalPos="169.24" actType="waiting"/>
        <ride waitingTime="3058.00" vehicle="bus_1_24770" depart="24837.00" arrival="26429.00" arrivalPos="13.00" duration="1592.00" routeLength="17598.26" timeLoss="319.11"/>
    </personinfo>
    <personinfo id="flow_1.15" depart="21771.00" type="DEFAULT_PEDTYPE" speedFactor="0.88" duration="4658.00" waitingTime="3056.00" timeLoss="319.11" traveltime="1592.00">
        <stop duration="10.00" arrival="21781.00" arrivalPos="169.24" actType="waiting"/>
        <ride waitingTime="3056.00" vehicle="bus_1_24770" depart="24837.00" arrival="26429.00" arrivalPos="13.00" duration="1592.00" routeLength="17598.26" timeLoss="319.11"/>
    </personinfo>
    <personinfo id="flow_1.16" depart="21775.00" type="DEFAULT_PEDTYPE" speedFactor="1.11" duration="4655.00" waitingTime="3052.00" timeLoss="319.11" traveltime="1593.00">
        <stop duration="10.00" arrival="21785.00" arrivalPos="169.24" actType="waiting"/>
        <ride waitingTime="3052.00" vehicle="bus_1_24770" depart="24837.00" arrival="26430.00" arrivalPos="13.00" duration="1593.00" routeLength="17598.26" timeLoss="319.11"/>
    </personinfo>
    <personinfo id="flow_1.17" depart="21797.00" type="DEFAULT_PEDTYPE" speedFactor="1.16" duration="4633.00" waitingTime="3030.00" timeLoss="319.11" traveltime="1593.00">
        <stop duration="10.00" arrival="21807.00" arrivalPos="169.24" actType="waiting"/>
        <ride waitingTime="3030.00" vehicle="bus_1_24770" depart="24837.00" arrival="26430.00" arrivalPos="13.00" duration="1593.00" routeLength="17598.26" timeLoss="319.11"/>
    </personinfo>
    <personinfo id="flow_1.18" depart="21801.00" type="DEFAULT_PEDTYPE" speedFactor="1.05" duration="4630.00" waitingTime="3026.00" timeLoss="319.11" traveltime="1594.00">
        <stop duration="10.00" arrival="21811.00" arrivalPos="169.24" actType="waiting"/>
        <ride waitingTime="3026.00" vehicle="bus_1_24770" depart="24837.00" arrival="26431.00" arrivalPos="13.00" duration="1594.00" routeLength="17598.26" timeLoss="319.11"/>
    </personinfo>
    <personinfo id="flow_1.19" depart="21843.00" type="DEFAULT_PEDTYPE" speedFactor="1.08" duration="4588.00" waitingTime="2984.00" timeLoss="319.11" traveltime="1594.00">
        <stop duration="10.00" arrival="21853.00" arrivalPos="169.24" actType="waiting"/>
        <ride waitingTime="2984.00" vehicle="bus_1_24770" depart="24837.00" arrival="26431.00" arrivalPos="13.00" duration="1594.00" routeLength="17598.26" timeLoss="319.11"/>
    </personinfo>
    <personinfo id="flow_1.20" depart="21865.00" type="DEFAULT_PEDTYPE" speedFactor="1.06" duration="4567.00" waitingTime="2962.00" timeLoss="319.11" traveltime="1595.00">
        <stop duration="10.00" arrival="21875.00" arrivalPos="169.24" actType="waiting"/>
        <ride waitingTime="2962.00" vehicle="bus_1_24770" depart="24837.00" arrival="26432.00" arrivalPos="13.00" duration="1595.00" routeLength="17598.26" timeLoss="319.11"/>
    </personinfo>
    <personinfo id="flow_1.21" depart="21876.00" type="DEFAULT_PEDTYPE" speedFactor="1.10" duration="4556.00" waitingTime="2951.00" timeLoss="319.11" traveltime="1595.00">
        <stop duration="10.00" arrival="21886.00" arrivalPos="169.24" actType="waiting"/>
        <ride waitingTime="2951.00" vehicle="bus_1_24770" depart="24837.00" arrival="26432.00" arrivalPos="13.00" duration="1595.00" routeLength="17598.26" timeLoss="319.11"/>
    </personinfo>
    <personinfo id="flow_1.22" depart="21879.00" type="DEFAULT_PEDTYPE" speedFactor="1.04" duration="4554.00" waitingTime="2948.00" timeLoss="319.11" traveltime="1596.00">
        <stop duration="10.00" arrival="21889.00" arrivalPos="169.24" actType="waiting"/>
        <ride waitingTime="2948.00" vehicle="bus_1_24770" depart="24837.00" arrival="26433.00" arrivalPos="13.00" duration="1596.00" routeLength="17598.26" timeLoss="319.11"/>
    </personinfo>
    <personinfo id="flow_1.23" depart="21883.00" type="DEFAULT_PEDTYPE" speedFactor="0.79" duration="4550.00" waitingTime="2944.00" timeLoss="319.11" traveltime="1596.00">
        <stop duration="10.00" arrival="21893.00" arrivalPos="169.24" actType="waiting"/>
        <ride waitingTime="2944.00" vehicle="bus_1_24770" depart="24837.00" arrival="26433.00" arrivalPos="13.00" duration="1596.00" routeLength="17598.26" timeLoss="319.11"/>
    </personinfo>
    <personinfo id="flow_1.24" depart="21887.00" type="DEFAULT_PEDTYPE" speedFactor="1.02" duration="4547.00" waitingTime="2940.00" timeLoss="319.11" traveltime="1597.00">
        <stop duration="10.00" arrival="21897.00" arrivalPos="169.24" actType="waiting"/>
        <ride waitingTime="2940.00" vehicle="bus_1_24770" depart="24837.00" arrival="26434.00" arrivalPos="13.00" duration="1597.00" routeLength="17598.26" timeLoss="319.11"/>
    </personinfo>
    <personinfo id="flow_1.25" depart="21891.00" type="DEFAULT_PEDTYPE" speedFactor="1.06" duration="4543.00" waitingTime="2936.00" timeLoss="319.11" traveltime="1597.00">
        <stop duration="10.00" arrival="21901.00" arrivalPos="169.24" actType="waiting"/>
        <ride waitingTime="2936.00" vehicle="bus_1_24770" depart="24837.00" arrival="26434.00" arrivalPos="13.00" duration="1597.00" routeLength="17598.26" timeLoss="319.11"/>
    </personinfo>
    <personinfo id="flow_1.26" depart="21893.00" type="DEFAULT_PEDTYPE" speedFactor="1.01" duration="4542.00" waitingTime="2934.00" timeLoss="319.11" traveltime="1598.00">
        <stop duration="10.00" arrival="21903.00" arrivalPos="169.24" actType="waiting"/>
        <ride waitingTime="2934.00" vehicle="bus_1_24770" depart="24837.00" arrival="26435.00" arrivalPos="13.00" duration="1598.00" routeLength="17598.26" timeLoss="319.11"/>
    </personinfo>
    <personinfo id="flow_1.27" depart="21909.00" type="DEFAULT_PEDTYPE" speedFactor="0.95" duration="4526.00" waitingTime="2918.00" timeLoss="319.11" traveltime="1598.00">
        <stop duration="10.00" arrival="21919.00" arrivalPos="169.24" actType="waiting"/>
        <ride waitingTime="2918.00" vehicle="bus_1_24770" depart="24837.00" arrival="26435.00" arrivalPos="13.00" duration="1598.00" routeLength="17598.26" timeLoss="319.11"/>
    </personinfo>
    <personinfo id="flow_1.28" depart="21923.00" type="DEFAULT_PEDTYPE" speedFactor="1.06" duration="4513.00" waitingTime="2904.00" timeLoss="319.11" traveltime="1599.00">
        <stop duration="10.00" arrival="21933.00" arrivalPos="169.24" actType="waiting"/>
        <ride waitingTime="2904.00" vehicle="bus_1_24770" depart="24837.00" arrival="26436.00" arrivalPos="13.00" duration="1599.00" routeLength="17598.26" timeLoss="319.11"/>
    </personinfo>
    <personinfo id="flow_1.29" depart="21929.00" type="DEFAULT_PEDTYPE" speedFactor="1.03" duration="4507.00" waitingTime="2898.00" timeLoss="319.11" traveltime="1599.00">
        <stop duration="10.00" arrival="21939.00" arrivalPos="169.24" actType="waiting"/>
        <ride waitingTime="2898.00" vehicle="bus_1_24770" depart="24837.00" arrival="26436.00" arrivalPos="13.00" duration="1599.00" routeLength="17598.26" timeLoss="319.11"/>
    </personinfo>
    <personinfo id="flow_1.30" depart="21951.00" type="DEFAULT_PEDTYPE" speedFactor="1.07" duration="4486.00" waitingTime="2876.00" timeLoss="319.11" traveltime="1600.00">
        <stop duration="10.00" arrival="21961.00" arrivalPos="169.24" actType="waiting"/>
        <ride waitingTime="2876.00" vehicle="bus_1_24770" depart="24837.00" arrival="26437.00" arrivalPos="13.00" duration="1600.00" routeLength="17598.26" timeLoss="319.11"/>
    </personinfo>
    <personinfo id="flow_1.31" depart="21979.00" type="DEFAULT_PEDTYPE" speedFactor="0.99" duration="4458.00" waitingTime="2848.00" timeLoss="319.11" traveltime="1600.00">
        <stop duration="10.00" arrival="21989.00" arrivalPos="169.24" actType="waiting"/>
        <ride waitingTime="2848.00" vehicle="bus_1_24770" depart="24837.00" arrival="26437.00" arrivalPos="13.00" duration="1600.00" routeLength="17598.26" timeLoss="319.11"/>
    </personinfo>
    <personinfo id="flow_1.32" depart="21990.00" type="DEFAULT_PEDTYPE" speedFactor="0.98" duration="4448.00" waitingTime="2837.00" timeLoss="319.11" traveltime="1601.00">
        <stop duration="10.00" arrival="22000.00" arrivalPos="169.24" actType="waiting"/>
        <ride waitingTime="2837.00" vehicle="bus_1_24770" depart="24837.00" arrival="26438.00" arrivalPos="13.00" duration="1601.00" routeLength="17598.26" timeLoss="319.11"/>
    </personinfo>
    <personinfo id="flow_1.33" depart="21993.00" type="DEFAULT_PEDTYPE" speedFactor="0.97" duration="4445.00" waitingTime="2834.00" timeLoss="319.11" traveltime="1601.00">
        <stop duration="10.00" arrival="22003.00" arrivalPos="169.24" actType="waiting"/>
        <ride waitingTime="2834.00" vehicle="bus_1_24770" depart="24837.00" arrival="26438.00" arrivalPos="13.00" duration="1601.00" routeLength="17598.26" timeLoss="319.11"/>
    </personinfo>
    <personinfo id="flow_1.34" depart="22001.00" type="DEFAULT_PEDTYPE" speedFactor="1.25" duration="4438.00" waitingTime="2826.00" timeLoss="319.11" traveltime="1602.00">
        <stop duration="10.00" arrival="22011.00" arrivalPos="169.24" actType="waiting"/>
        <ride waitingTime="2826.00" vehicle="bus_1_24770" depart="24837.00" arrival="26439.00" arrivalPos="13.00" duration="1602.00" routeLength="17598.26" timeLoss="319.11"/>
    </personinfo>
    <personinfo id="flow_1.35" depart="22007.00" type="DEFAULT_PEDTYPE" speedFactor="0.84" duration="4432.00" waitingTime="2820.00" timeLoss="319.11" traveltime="1602.00">
        <stop duration="10.00" arrival="22017.00" arrivalPos="169.24" actType="waiting"/>
        <ride waitingTime="2820.00" vehicle="bus_1_24770" depart="24837.00" arrival="26439.00" arrivalPos="13.00" duration="1602.00" routeLength="17598.26" timeLoss="319.11"/>
    </personinfo>
    <personinfo id="flow_1.36" depart="22010.00" type="DEFAULT_PEDTYPE" speedFactor="1.03" duration="4430.00" waitingTime="2817.00" timeLoss="319.11" traveltime="1603.00">
        <stop duration="10.00" arrival="22020.00" arrivalPos="169.24" actType="waiting"/>
        <ride waitingTime="2817.00" vehicle="bus_1_24770" depart="24837.00" arrival="26440.00" arrivalPos="13.00" duration="1603.00" routeLength="17598.26" timeLoss="319.11"/>
    </personinfo>
    <personinfo id="flow_1.37" depart="22014.00" type="DEFAULT_PEDTYPE" speedFactor="0.99" duration="4426.00" waitingTime="2813.00" timeLoss="319.11" traveltime="1603.00">
        <stop duration="10.00" arrival="22024.00" arrivalPos="169.24" actType="waiting"/>
        <ride waitingTime="2813.00" vehicle="bus_1_24770" depart="24837.00" arrival="26440.00" arrivalPos="13.00" duration="1603.00" routeLength="17598.26" timeLoss="319.11"/>
    </personinfo>
    <personinfo id="flow_1.38" depart="22035.00" type="DEFAULT_PEDTYPE" speedFactor="1.00" duration="4406.00" waitingTime="2792.00" timeLoss="319.11" traveltime="1604.00">
        <stop duration="10.00" arrival="22045.00" arrivalPos="169.24" actType="waiting"/>
        <ride waitingTime="2792.00" vehicle="bus_1_24770" depart="24837.00" arrival="26441.00" arrivalPos="13.00" duration="1604.00" routeLength="17598.26" timeLoss="319.11"/>
    </personinfo>
    <personinfo id="flow_1.39" depart="22055.00" type="DEFAULT_PEDTYPE" speedFactor="0.80" duration="4386.00" waitingTime="2772.00" timeLoss="319.11" traveltime="1604.00">
        <stop duration="10.00" arrival="22065.00" arrivalPos="169.24" actType="waiting"/>
        <ride waitingTime="2772.00" vehicle="bus_1_24770" depart="24837.00" arrival="26441.00" arrivalPos="13.00" duration="1604.00" routeLength="17598.26" timeLoss="319.11"/>
    </personinfo>
    <personinfo id="flow_1.40" depart="22067.00" type="DEFAULT_PEDTYPE" speedFactor="0.95" duration="4375.00" waitingTime="2760.00" timeLoss="319.11" traveltime="1605.00">
        <stop duration="10.00" arrival="22077.00" arrivalPos="169.24" actType="waiting"/>
        <ride waitingTime="2760.00" vehicle="bus_1_24770" depart="24837.00" arrival="26442.00" arrivalPos="13.00" duration="1605.00" routeLength="17598.26" timeLoss="319.11"/>
    </personinfo>
    <personinfo id="flow_1.41" depart="22072.00" type="DEFAULT_PEDTYPE" speedFactor="0.86" duration="4370.00" waitingTime="2755.00" timeLoss="319.11" traveltime="1605.00">
        <stop duration="10.00" arrival="22082.00" arrivalPos="169.24" actType="waiting"/>
        <ride waitingTime="2755.00" vehicle="bus_1_24770" depart="24837.00" arrival="26442.00" arrivalPos="13.00" duration="1605.00" routeLength="17598.26" timeLoss="319.11"/>
    </personinfo>
    <personinfo id="flow_1.42" depart="22073.00" type="DEFAULT_PEDTYPE" speedFactor="1.07" duration="4370.00" waitingTime="2754.00" timeLoss="319.11" traveltime="1606.00">
        <stop duration="10.00" arrival="22083.00" arrivalPos="169.24" actType="waiting"/>
        <ride waitingTime="2754.00" vehicle="bus_1_24770" depart="24837.00" arrival="26443.00" arrivalPos="13.00" duration="1606.00" routeLength="17598.26" timeLoss="319.11"/>
    </personinfo>
    <personinfo id="flow_1.43" depart="22074.00" type="DEFAULT_PEDTYPE" speedFactor="1.11" duration="4369.00" waitingTime="2753.00" timeLoss="319.11" traveltime="1606.00">
        <stop duration="10.00" arrival="22084.00" arrivalPos="169.24" actType="waiting"/>
        <ride waitingTime="2753.00" vehicle="bus_1_24770" depart="24837.00" arrival="26443.00" arrivalPos="13.00" duration="1606.00" routeLength="17598.26" timeLoss="319.11"/>
    </personinfo>
    <personinfo id="flow_1.44" depart="22083.00" type="DEFAULT_PEDTYPE" speedFactor="0.85" duration="4361.00" waitingTime="2744.00" timeLoss="319.11" traveltime="1607.00">
        <stop duration="10.00" arrival="22093.00" arrivalPos="169.24" actType="waiting"/>
        <ride waitingTime="2744.00" vehicle="bus_1_24770" depart="24837.00" arrival="26444.00" arrivalPos="13.00" duration="1607.00" routeLength="17598.26" timeLoss="319.11"/>
    </personinfo>
    <personinfo id="flow_1.45" depart="22085.00" type="DEFAULT_PEDTYPE" speedFactor="1.06" duration="4359.00" waitingTime="2742.00" timeLoss="319.11" traveltime="1607.00">
        <stop duration="10.00" arrival="22095.00" arrivalPos="169.24" actType="waiting"/>
        <ride waitingTime="2742.00" vehicle="bus_1_24770" depart="24837.00" arrival="26444.00" arrivalPos="13.00" duration="1607.00" routeLength="17598.26" timeLoss="319.11"/>
    </personinfo>
    <personinfo id="flow_1.46" depart="22104.00" type="DEFAULT_PEDTYPE" speedFactor="0.87" duration="4341.00" waitingTime="2723.00" timeLoss="319.11" traveltime="1608.00">
        <stop duration="10.00" arrival="22114.00" arrivalPos="169.24" actType="waiting"/>
        <ride waitingTime="2723.00" vehicle="bus_1_24770" depart="24837.00" arrival="26445.00" arrivalPos="13.00" duration="1608.00" routeLength="17598.26" timeLoss="319.11"/>
    </personinfo>
    <personinfo id="flow_1.47" depart="22105.00" type="DEFAULT_PEDTYPE" speedFactor="1.19" duration="4340.00" waitingTime="2722.00" timeLoss="319.11" traveltime="1608.00">
        <stop duration="10.00" arrival="22115.00" arrivalPos="169.24" actType="waiting"/>
        <ride waitingTime="2722.00" vehicle="bus_1_24770" depart="24837.00" arrival="26445.00" arrivalPos="13.00" duration="1608.00" routeLength="17598.26" timeLoss="319.11"/>
    </personinfo>
    <personinfo id="flow_1.48" depart="22116.00" type="DEFAULT_PEDTYPE" speedFactor="1.03" duration="4330.00" waitingTime="2711.00" timeLoss="319.11" traveltime="1609.00">
        <stop duration="10.00" arrival="22126.00" arrivalPos="169.24" actType="waiting"/>
        <ride waitingTime="2711.00" vehicle="bus_1_24770" depart="24837.00" arrival="26446.00" arrivalPos="13.00" duration="1609.00" routeLength="17598.26" timeLoss="319.11"/>
    </personinfo>
    <personinfo id="flow_1.49" depart="22161.00" type="DEFAULT_PEDTYPE" speedFactor="0.84" duration="4285.00" waitingTime="2666.00" timeLoss="319.11" traveltime="1609.00">
        <stop duration="10.00" arrival="22171.00" arrivalPos="169.24" actType="waiting"/>
        <ride waitingTime="2666.00" vehicle="bus_1_24770" depart="24837.00" arrival="26446.00" arrivalPos="13.00" duration="1609.00" routeLength="17598.26" timeLoss="319.11"/>
    </personinfo>
    <personinfo id="flow_1.50" depart="22167.00" type="DEFAULT_PEDTYPE" speedFactor="1.00" duration="4280.00" waitingTime="2660.00" timeLoss="319.11" traveltime="1610.00">
        <stop duration="10.00" arrival="22177.00" arrivalPos="169.24" actType="waiting"/>
        <ride waitingTime="2660.00" vehicle="bus_1_24770" depart="24837.00" arrival="26447.00" arrivalPos="13.00" duration="1610.00" routeLength="17598.26" timeLoss="319.11"/>
    </personinfo>
    <personinfo id="flow_1.51" depart="22169.00" type="DEFAULT_PEDTYPE" speedFactor="1.00" duration="4278.00" waitingTime="2658.00" timeLoss="319.11" traveltime="1610.00">
        <stop duration="10.00" arrival="22179.00" arrivalPos="169.24" actType="waiting"/>
        <ride waitingTime="2658.00" vehicle="bus_1_24770" depart="24837.00" arrival="26447.00" arrivalPos="13.00" duration="1610.00" routeLength="17598.26" timeLoss="319.11"/>
    </personinfo>
    <personinfo id="flow_1.52" depart="22197.00" type="DEFAULT_PEDTYPE" speedFactor="1.05" duration="4251.00" waitingTime="2630.00" timeLoss="319.11" traveltime="1611.00">
        <stop duration="10.00" arrival="22207.00" arrivalPos="169.24" actType="waiting"/>